{"element":{"ElementSymbol":"Md","ElementName":"Mendelevium","AtomicNumber":101,"AtomicWeight":258,"PhysicalProperties":[{"Property":["Melting point","1100"],"PropertyType":["Kelvin","K"]}],"MoreInfoLink":"http:\/\/en.wikipedia.org\/wiki\/Mendelevium","BriefDescription":"<p>Mendelevium is a synthetic element with the symbol Md (formerly Mv) and the atomic number 101. A metallic radioactive transuranic element in the actinide series, mendelevium is usually synthesized by bombarding einsteinium with alpha particles. It was named after Dmitri Ivanovich Mendeleev, who created the periodic table, the standard way to classify all the chemical elements.<\/p>\r\n\r\n<p>There are no other known uses of mendelevium and only trace amounts of the element have ever been produced.<\/p>"}}