{"element":{"ElementSymbol":"Na","ElementName":"Sodium","AtomicNumber":11,"AtomicWeight":22.9898,"PhysicalProperties":[{"Property":["Melting point","370.944"],"PropertyType":["Kelvin","K"]},{"Property":["Boiling point","1156.09"],"PropertyType":["Kelvin","K"]}],"MoreInfoLink":"http:\/\/en.wikipedia.org\/wiki\/Sodium","BriefDescription":"<p>Sodium is a soft, silver-white, highly reactive metal and is a member of the alkali metals; its only stable isotope is 23Na. The free metal does not occur in nature, but instead must be prepared from its compounds<\/p>\r\n\r\n<p>Sodium is the sixth most abundant element in the Earth's crust, and exists in numerous minerals such as feldspars, sodalite and rock salt<\/p>\r\n\r\n<p>Many sodium compounds are useful, such as sodium hydroxide (lye) for soap-making, and sodium chloride for use as a de-icing agent and a nutrient (edible salt). Sodium is an essential element for all animals and some plants.<\/p>"}}