{"element":{"ElementSymbol":"Ar","ElementName":"Argon","AtomicNumber":18,"AtomicWeight":39.948,"PhysicalProperties":[{"Property":["Melting point","83.81"],"PropertyType":["Kelvin","K"]},{"Property":["Boiling point","87.302"],"PropertyType":["Kelvin","K"]}],"MoreInfoLink":"http:\/\/en.wikipedia.org\/wiki\/Argon","BriefDescription":"<p>Argon is the third most common gas in the Earth's atmosphere, at 0.93% (9,300 ppm), making it approximately 23.8 times as abundant as the next most common atmospheric gas, carbon dioxide (390 ppm), and more than 500 times as abundant as the next most common noble gas, neon (18 ppm).<\/p>\r\n\r\n<p>Argon is produced industrially by the fractional distillation of liquid air. Argon is mostly used as an inert shielding gas in welding and other high-temperature industrial processes where ordinarily non-reactive substances become reactive<\/p>"}}