{"element":{"ElementSymbol":"K","ElementName":"Potassium","AtomicNumber":19,"AtomicWeight":39.0983,"PhysicalProperties":[{"Property":["Melting point","336.7"],"PropertyType":["Kelvin","K"]},{"Property":["Boiling point","1032"],"PropertyType":["Kelvin","K"]}],"MoreInfoLink":"http:\/\/en.wikipedia.org\/wiki\/Potassium","BriefDescription":"<p>Elemental potassium is a soft silvery-white alkali metal that oxidizes rapidly in air and is very reactive with water.<\/p>\r\n\r\n<p>Most industrial chemical applications of potassium employ the relatively high solubility in water of potassium compounds, such as potassium soaps. Potassium metal has only a few special applications, being replaced in most chemical reactions with sodium metal.<\/p>"}}