{"element":{"ElementSymbol":"Ca","ElementName":"Calcium","AtomicNumber":20,"AtomicWeight":40.078,"PhysicalProperties":[{"Property":["Melting point","1115"],"PropertyType":["Kelvin","K"]},{"Property":["Boiling point","1757"],"PropertyType":["Kelvin","K"]}],"MoreInfoLink":"http:\/\/en.wikipedia.org\/wiki\/Calcium","BriefDescription":"<p>Calcium is a soft gray alkaline earth metal, and is the fifth-most-abundant element by mass in the Earth's crust.<\/p>\r\n\r\n<p>Calcium is essential for living organisms, in particular in cell physiology, where movement of the calcium ion Ca2+ into and out of the cytoplasm functions as a signal for many cellular processes. As a major material used in mineralization of bone, teeth and shells, calcium is the most abundant metal by mass in many animals.<\/p>"}}