{"element":{"ElementSymbol":"Li","ElementName":"Lithium","AtomicNumber":3,"AtomicWeight":6.941,"PhysicalProperties":[{"Property":["Melting point","453.65"],"PropertyType":["Kelvin","K"]},{"Property":["Boiling point","1615"],"PropertyType":["Kelvin","K"]}],"MoreInfoLink":"http:\/\/en.wikipedia.org\/wiki\/Lithium","BriefDescription":"<p>Lithium is a highly reactive and flammable metal; this effect can be observed by cutting some Lithium open, at first it will appear 'shiny' however after a few seconds reactions with air molecules will quickly turn the colour of the Lithium into a dull grey shade.<\/p>"}}