{"element":{"ElementSymbol":"Xe","ElementName":"Xenon","AtomicNumber":54,"AtomicWeight":131.293,"PhysicalProperties":[{"Property":["Melting point","161.4"],"PropertyType":["Kelvin","K"]},{"Property":["Boiling point","165.051"],"PropertyType":["Kelvin","K"]}],"MoreInfoLink":"http:\/\/en.wikipedia.org\/wiki\/Xenon","BriefDescription":"<p>Xenon is a colorless, heavy, odorless noble gas, that occurs in the Earth's atmosphere in trace amounts.<\/p>\r\n\r\n<p>Naturally occurring xenon consists of eight stable isotopes. There are also over 40 unstable isotopes that undergo radioactive decay. The isotope ratios of xenon are an important tool for studying the early history of the Solar System.<\/p>\r\n\r\n<p>Xenon is used in flash lamps and arc lamps, and as a general anesthetic.<\/p>"}}