{"element":{"ElementSymbol":"Eu","ElementName":"Europium","AtomicNumber":63,"AtomicWeight":151.964,"PhysicalProperties":[{"Property":["Melting point","1099"],"PropertyType":["Kelvin","K"]},{"Property":["Boiling point","1802"],"PropertyType":["Kelvin","K"]}],"MoreInfoLink":"http:\/\/en.wikipedia.org\/wiki\/Europium","BriefDescription":"<p>Europium is a chemical element with the symbol Eu and atomic number 63. It is named after the continent Europe. It is a moderately hard, silvery metal which readily oxidizes in air and water.<\/p>\r\n\r\n<p>Europium has no significant biological role and is relatively non-toxic compared to other heavy metals. Most applications of europium exploit the phosphorescence of europium compounds.\/p>"}}