{"element":{"ElementSymbol":"Os","ElementName":"Osmium","AtomicNumber":76,"AtomicWeight":190.23,"PhysicalProperties":[{"Property":["Melting point","3306"],"PropertyType":["Kelvin","K"]},{"Property":["Boiling point","5285"],"PropertyType":["Kelvin","K"]}],"MoreInfoLink":"http:\/\/en.wikipedia.org\/wiki\/Osmium","BriefDescription":"<p>Osmium is a chemical element with the symbol Os and atomic number 76. It is a hard, brittle, bluish-white transition metal in the platinum family and is the densest naturally occurring element, with a density of 22.59 g\/cm3. It is found as a trace element in alloys, mostly in platinum ores. Its alloys with platinum, iridium, and other platinum group metals are employed in fountain pen tips, electrical contacts, and other applications where extreme durability and hardness are needed.<\/p>"}}