{"element":{"ElementSymbol":"O","ElementName":"Oxygen","AtomicNumber":8,"AtomicWeight":15.999,"PhysicalProperties":[{"Property":["Melting point","54.36"],"PropertyType":["Kelvin","K"]},{"Property":["Boiling point","90.188"],"PropertyType":["Kelvin","K"]}],"MoreInfoLink":"http:\/\/en.wikipedia.org\/wiki\/Oxygen","BriefDescription":"<p>Oxygen is a highly reactive nonmetallic element and oxidizing agent that readily forms compounds (notably oxides) with most elements. By mass, oxygen is the third-most abundant element in the universe, after hydrogen and helium.<\/p>\r\n\r\n<p>Oxygen is an important part of the atmosphere, and is necessary to sustain most terrestrial life as it is used in respiration.<\/p>"}}