{"element":{"ElementSymbol":"F","ElementName":"Fluorine","AtomicNumber":9,"AtomicWeight":18.9984,"PhysicalProperties":[{"Property":["Melting point","53.48"],"PropertyType":["Kelvin","K"]},{"Property":["Boiling point","85.03"],"PropertyType":["Kelvin","K"]}],"MoreInfoLink":"http:\/\/en.wikipedia.org\/wiki\/Fluorine","BriefDescription":"<p>Fluorine is an extremely reactive and poisonous elemental gas with a pale yellow appearance. It is the lightest of the halogens and most electronegative of the elements. It is also the 24th most abundant element in the known universe.<\/p>\r\n\r\n<p>Because of the expense of refining the pure element, nearly all commercially used fluorine remains in compound form throughout its processing.<\/p>"}}